/*--------------------------------*- C++ -*----------------------------------*\
  =========                 |
  \\      /  F ield         | OpenFOAM: The Open Source CFD Toolbox
   \\    /   O peration     | Website:  https://openfoam.org
    \\  /    A nd           | Version:  13
     \\/     M anipulation  |
\*---------------------------------------------------------------------------*/
FoamFile
{
    format      ascii;
    class       volScalarField;
    location    "0";
    object      yPlus;
}
// * * * * * * * * * * * * * * * * * * * * * * * * * * * * * * * * * * * * * //

dimensions      [];

internalField   uniform 0;

boundaryField
{
    inlet
    {
        type            calculated;
        value           uniform 0;
    }
    outlet
    {
        type            calculated;
        value           uniform 0;
    }
    top
    {
        type            calculated;
        value           uniform 0;
    }
    bottom
    {
        type            calculated;
        value           uniform 0;
    }
    side1
    {
        type            calculated;
        value           uniform 0;
    }
    side2
    {
        type            calculated;
        value           uniform 0;
    }
    corpo
    {
        type            calculated;
        value           nonuniform List<scalar> 
1741
(
5.97811
4.73476
4.78598
7.06809
7.43573
12.9046
7.16846
7.65704
2.4809
5.07892
3.47487
6.9404
2.06874
7.08582
5.44149
7.47278
10.0208
3.50149
5.66613
1.99793
6.3449
8.32354
4.62423
6.71176
12.9046
12.4831
3.32106
8.34762
9.00499
9.48628
9.21616
2.58241
2.54079
14.4672
4.35672
5.87688
6.21107
6.16205
4.98859
11.7609
12.7226
1.79923
7.7467
2.06821
2.67941
2.33885
3.1621
5.70079
3.1737
3.27573
1.62197
4.9552
3.08272
6.18123
6.31343
5.71671
4.52398
6.04964
4.85141
7.71493
3.2824
6.45085
8.47446
2.33157
2.57845
2.32154
3.22206
3.48046
2.86585
3.08994
1.9131
4.45777
1.91048
7.37011
8.65434
5.71543
4.07684
3.38871
13.5118
3.31034
2.85528
6.99833
4.25188
3.16048
3.61156
2.06749
4.69924
3.85705
5.32249
4.61128
4.44649
5.00962
7.4519
10.0917
5.35117
5.52319
5.69543
5.10996
5.94238
4.90661
6.9633
5.56446
6.92222
5.29565
6.45503
5.55963
7.25231
6.3907
6.98143
4.89089
6.60049
6.53178
6.64853
6.81692
6.53618
6.86663
5.30387
7.06377
6.88042
7.02446
7.63233
5.31836
7.70807
5.92389
7.40411
5.42866
7.74487
6.25508
5.62373
7.94318
6.69681
7.212
6.12029
5.63265
5.97128
5.41605
2.31531
6.38146
3.37744
4.98774
9.36642
7.91917
5.08323
7.23599
3.13682
6.82476
2.79573
4.46873
7.90108
4.02273
7.93111
4.61123
1.76051
6.2435
7.70286
12.9258
6.03508
13.3399
3.5178
3.85301
6.81924
4.10019
2.76029
13.1144
12.1229
11.0291
3.30793
14.4563
11.3505
12.3709
6.89008
7.49862
3.17345
15.1752
15.8597
13.9634
11.1311
5.28089
12.5199
5.11355
15.4255
9.10703
10.5614
10.5606
2.09874
2.1599
3.95234
2.47904
4.91601
1.71704
11.1689
2.09154
10.5076
10.6848
7.82447
3.04426
4.42915
1.94232
5.57983
14.9088
5.79517
6.45997
4.58201
2.02224
4.59209
6.00105
9.86523
3.83598
8.81079
8.60122
11.1843
9.80111
10.3877
3.36499
6.45064
6.38383
5.80571
15.0724
2.66769
7.98757
5.87479
3.01214
8.53082
1.80715
12.3293
2.68764
14.7053
3.65549
6.22494
3.34715
4.21405
2.41787
2.64831
1.74898
3.32293
8.18676
9.60907
10.0918
8.55879
9.66715
9.91124
5.68972
3.09604
11.139
4.6615
10.3828
9.71181
11.3416
5.5133
7.61819
5.93836
8.67914
10.5122
9.63134
3.81459
4.82279
2.89859
8.60877
5.07892
2.85621
6.85258
3.57456
2.37508
3.20369
7.41368
11.4444
7.70297
13.5099
1.6767
1.82011
3.10219
2.73771
7.49824
9.1693
2.45939
4.22862
2.97071
5.11262
4.65128
5.37085
5.35061
6.29644
2.4114
2.68584
4.03816
5.11971
5.3411
5.47862
3.98362
4.72154
5.78101
6.45714
6.85873
6.84437
13.1129
12.3983
12.9136
4.92578
5.30911
5.1084
3.59404
5.38723
5.88766
6.00391
2.15724
3.01169
4.09599
3.24411
5.43111
6.41817
5.78883
6.50568
4.07575
6.14277
6.59508
3.7097
3.91682
5.02571
1.65858
3.03156
2.6782
1.86264
8.40334
6.33798
6.73371
2.8255
5.30666
3.82697
2.07546
2.87962
7.76399
8.29891
6.64744
7.90273
6.964
4.97632
4.17999
4.35086
6.89101
13.4113
11.1317
3.35188
5.65814
2.38124
2.86243
7.14628
6.91611
5.01077
2.6419
12.7282
8.34626
4.10263
2.23665
13.9637
7.23038
5.87605
13.472
3.20004
4.42949
3.20352
1.99793
1.48574
2.25287
2.36457
3.2523
5.0747
7.50332
10.5693
2.73893
4.70252
10.2021
13.9321
7.29478
10.4481
10.6066
5.50884
6.2372
12.2698
2.83806
3.33455
4.26415
6.45379
8.08666
11.0657
8.16441
7.56319
8.54873
5.51979
7.15955
7.20953
18.0179
5.4366
6.4071
7.08822
7.18868
9.75882
5.47239
2.7451
5.2857
2.72415
5.77031
2.67894
5.12461
5.68121
5.2417
9.28407
8.42969
8.00722
7.03855
13.135
6.68456
3.33912
7.2061
7.77455
5.07519
3.24642
2.30501
7.01029
5.94479
6.53457
1.89122
1.87001
3.32591
7.97413
9.37309
8.70449
5.99293
10.1026
2.78752
6.5773
5.478
3.73407
2.30908
8.76399
1.45803
7.97287
2.41523
9.32932
9.97358
6.51661
9.71578
7.8781
6.19908
6.8459
1.82398
4.15998
11.2627
5.11137
3.14275
13.0918
6.62624
8.39248
3.82281
7.03974
6.98013
14.448
4.37243
4.9081
5.33683
1.79245
4.40073
5.12588
2.43619
5.87008
5.9312
1.97001
1.70326
2.93278
7.1325
8.29623
7.08898
7.51274
2.52938
3.03922
5.93644
4.75413
7.57061
11.7451
2.44781
5.05117
7.44949
1.77872
6.85502
3.5326
7.21269
6.00516
4.43222
14.155
4.96636
3.94562
6.49885
4.15956
10.8473
6.54611
2.99192
7.74389
6.41729
5.53822
2.69821
7.58775
6.92803
3.26567
8.84669
2.12273
7.87413
4.933
7.44635
7.53718
9.43505
6.8318
4.29332
13.5382
8.67435
9.34839
2.92394
11.5066
7.71052
9.01151
7.75126
7.05357
6.13914
4.84723
9.50278
7.29069
9.93263
7.56711
5.04919
2.08473
6.94886
7.46454
7.78808
2.94968
2.62999
3.44684
1.44919
2.37775
4.68834
4.15273
3.49926
4.52822
4.5594
7.7718
10.8571
10.0618
8.82678
5.6608
4.94502
4.21829
4.05439
5.11509
3.72356
2.96654
6.20656
11.0286
4.84958
8.32149
2.17265
1.59914
4.87811
4.38337
2.24375
4.15299
4.11425
5.68972
3.82129
4.65313
3.45643
5.09861
7.15373
5.87406
9.27307
3.05728
7.72754
1.55337
2.5079
2.08998
2.89717
4.62642
2.45404
3.31843
4.84707
4.10895
6.55692
4.57263
4.22543
2.53812
5.61149
4.66897
2.89285
2.67173
3.60406
6.78912
5.70771
6.88035
1.94673
2.04103
3.66252
6.97433
3.31024
8.48258
2.01614
1.77688
3.10115
10.1658
2.70937
12.6939
2.78328
7.90873
1.70386
5.78464
5.98263
5.07831
4.43773
6.21311
3.37021
6.77337
2.12992
4.61394
1.83932
7.25853
2.25213
6.21217
2.49051
2.75945
5.61345
7.44767
2.97989
3.24411
1.70852
3.75051
2.49839
4.64044
1.99578
5.19622
1.65407
3.53057
7.79939
7.33542
3.23181
2.13281
2.65663
3.47522
5.72731
3.29209
10.4722
7.78375
2.44025
4.17955
2.45063
4.15934
3.42217
5.11839
4.12908
4.00134
1.74092
5.45625
8.56647
5.0679
4.87275
5.84475
10.6273
5.29412
6.13702
7.30312
7.55642
5.4183
5.14903
1.29111
6.10926
6.72076
7.11822
7.03631
5.54638
10.2842
6.89431
8.45626
10.0708
8.4862
12.0691
8.71247
9.08528
10.6429
2.48169
4.00787
4.38537
11.2825
12.2243
4.44475
4.65725
5.21728
3.98339
12.3165
9.23314
5.38942
2.96557
8.33155
7.79943
4.26931
6.96686
6.76847
2.09381
2.84256
7.7692
6.34898
4.95219
5.58921
5.0747
3.40653
3.18091
5.0679
4.70252
3.0661
1.76689
7.48876
8.09887
1.21769
1.63863
2.15196
2.2886
2.04029
1.52777
2.31253
2.32368
2.10176
1.50244
2.10748
1.93506
2.0966
1.32804
1.59871
1.30178
0.40034
2.18566
2.10819
2.03054
2.16284
1.79395
1.95528
1.42396
0.90694
1.45167
2.32314
2.30503
0.575896
0.855872
1.29536
1.33276
0.927055
2.26775
2.34034
2.34476
1.6164
2.00666
2.17137
1.6295
1.92768
1.92659
2.31212
2.25244
1.89429
1.58671
1.42007
2.28362
0.903787
1.53654
1.75016
2.33988
1.54669
1.774
1.44399
2.60087
2.38077
1.3286
2.35309
1.60039
1.80684
1.94951
2.59341
1.35531
1.36613
1.92753
1.26753
0.341833
0.280243
2.10014
1.9983
2.1087
1.73353
2.08493
3.05979
1.63145
1.82462
1.39987
0.571044
2.14904
1.16053
2.35987
2.2484
2.12712
1.95658
2.3878
1.28933
1.9052
2.27625
2.07471
1.8707
2.3423
2.38439
1.73272
2.11054
2.3762
1.10642
2.38159
2.35202
2.36851
2.39114
2.57696
2.24075
1.97605
2.36042
2.30133
2.1614
2.22424
2.36141
1.49127
2.31027
2.248
2.14578
1.7951
1.7653
1.95673
1.86974
1.9223
2.32402
2.50932
1.93473
1.81172
1.90806
2.15668
0.393653
0.581709
0.421984
1.01649
1.24428
0.977794
0.744493
1.08752
1.44412
1.37665
1.56501
1.7531
1.77746
1.83752
1.63014
1.62544
1.74998
1.86542
1.41656
1.56001
1.42372
0.827285
1.62699
0.573008
2.35854
1.68323
1.76637
0.447219
0.876035
0.920433
1.03173
1.28361
1.68007
1.59668
1.37105
2.15464
2.29374
2.14614
1.94301
2.26127
2.23807
2.13408
2.19008
2.34421
2.29948
2.31394
2.28283
2.28592
2.23094
2.06871
1.90536
2.17733
1.37063
2.0473
1.77421
1.66199
1.66991
1.45508
1.39134
1.13771
0.882354
1.8097
2.01796
1.44838
1.80003
2.24693
2.09892
2.27702
1.49505
2.57616
1.48494
1.00196
1.77538
2.21263
1.80897
1.25995
1.47876
1.05351
2.05822
1.29542
1.09582
1.66582
1.47361
1.84452
1.72058
1.85002
1.21926
2.24378
2.34278
1.70099
2.37035
1.02541
1.54887
1.84579
1.25297
1.92691
1.78891
1.17647
1.86807
1.43423
2.52167
2.14751
1.53621
1.95978
2.3033
0.591563
1.81525
1.49381
2.14578
2.14978
1.81712
2.12046
2.08161
2.12448
2.03864
2.03222
2.14591
1.55082
2.03491
1.8338
1.52648
1.22883
2.57462
1.2536
1.32312
1.78385
2.21314
2.08147
2.09807
2.96095
1.83703
2.12345
2.18823
2.29926
2.07102
2.15665
1.62308
1.7297
2.60852
2.19691
1.45269
1.68558
1.59186
1.44236
1.83274
1.47209
1.19033
1.48182
0.707795
1.91346
0.336804
2.24229
2.87564
1.72698
1.94442
2.26691
2.2927
2.32015
2.23686
2.30344
2.17225
1.88444
1.41208
1.63491
1.08665
1.23366
1.11151
1.34131
0.659046
1.32987
2.16699
0.51811
2.09571
1.98333
2.25532
2.36885
2.31929
2.34752
1.72793
2.3391
2.18687
2.33015
2.21483
1.66022
1.92451
2.8228
2.41151
1.32098
2.02387
2.67729
1.76041
1.75231
2.09104
0.909763
2.21469
1.64093
2.19338
1.63223
1.0414
0.61208
2.164
1.69969
1.63325
1.4276
1.62786
2.28577
2.11968
1.7987
2.28925
2.1495
2.23961
1.85067
2.21916
2.15886
1.84036
2.15241
2.2554
2.28141
2.34275
2.36237
2.3772
2.37633
1.77922
2.16394
2.31444
2.16665
1.38314
1.17836
1.31705
1.00961
1.83782
1.50727
1.6292
0.608937
2.01356
1.44315
1.12718
1.35944
2.01767
2.36421
1.66831
2.29233
2.09537
2.28821
2.34747
2.35569
2.34263
2.36352
2.30608
2.31276
2.33937
2.20487
2.14819
2.12243
1.01325
1.30627
1.14154
1.15854
1.97901
1.65399
1.72937
2.08937
2.33877
1.31922
0.713375
2.37117
2.20339
2.13408
2.32845
2.12347
2.02668
1.95991
1.70641
1.88137
2.33912
1.67369
1.1384
0.461391
0.574469
1.15517
0.998762
0.776488
1.40178
1.67354
1.37092
0.619045
1.10936
1.22112
1.05815
0.542609
2.36341
1.08024
1.51266
2.14076
2.2895
1.23363
1.78645
2.25907
1.65903
1.72925
1.50961
2.28624
2.11503
1.75451
0.458575
1.71413
2.07499
0.793784
1.02577
0.767522
0.826704
2.28505
2.04345
1.8073
2.27157
2.23832
1.53922
2.12798
1.47519
1.58779
2.09757
1.43228
1.46467
1.79956
0.943507
2.09517
1.2798
1.43748
0.481236
1.73682
2.05348
1.52493
1.88603
1.8008
1.26246
1.69579
2.51556
1.60197
0.700625
1.85942
2.32225
2.32419
1.99714
1.84579
1.78578
2.26612
1.42811
2.09451
2.24011
2.13817
2.3128
2.37913
2.39064
2.4376
2.35607
2.35401
1.89443
1.11514
1.0749
1.85664
1.31894
1.59876
2.37394
2.36227
2.39655
2.39279
1.74832
2.38439
2.35209
1.72981
1.71698
1.83418
2.11084
1.57705
2.08804
1.91957
1.05845
1.99275
2.42395
1.88703
2.34631
2.12654
2.30955
2.16953
2.18353
1.62386
2.25319
2.24171
1.84821
1.92193
1.16515
1.99222
2.2198
0.782355
1.87633
1.59544
2.35086
1.85745
2.21345
0.378501
1.88673
0.854948
2.42016
2.30907
1.75414
2.14437
2.28036
2.21819
2.21007
2.14389
2.33153
0.380694
2.04681
1.72818
2.36452
2.22403
2.34379
2.37872
2.35971
2.36798
2.35967
2.3276
2.23893
2.26235
1.6755
2.24249
2.39382
2.39533
2.402
2.39647
2.38794
2.37481
2.36268
1.08003
2.20969
2.33211
2.34304
2.3714
1.65238
0.995449
2.38825
2.33379
1.97285
2.35517
1.42187
1.93998
1.08805
1.16124
2.32173
0.806462
0.897138
0.376926
2.22648
2.27717
2.2567
2.2888
2.33142
1.65878
2.02748
1.54167
1.41689
1.51627
2.00453
1.5039
1.59572
2.19524
1.77504
2.33016
1.01599
0.650204
1.58379
1.27045
1.86979
1.66715
1.6767
1.53164
1.74229
1.51828
1.55406
1.36358
1.70222
1.97427
1.57244
2.05038
2.0676
1.29048
2.02492
1.60509
1.97583
1.70914
1.5257
1.13727
1.50261
1.45645
1.36888
0.927577
1.17272
0.817933
0.805864
1.12912
1.60434
1.77236
2.08315
2.19258
2.30293
2.30577
2.05378
2.28821
2.33972
2.316
2.35014
2.37195
1.89411
2.32593
2.37686
2.37378
2.2887
2.36946
2.3622
2.33027
2.24501
1.74456
2.06805
0.948249
0.556039
1.17244
2.07925
2.09118
1.21518
2.28457
2.29419
2.35343
2.31093
2.36036
2.38527
2.34595
2.37429
2.35699
2.3202
2.37517
2.36419
2.39363
2.35313
2.38308
2.39064
1.84783
2.38206
2.3965
2.38953
1.66772
2.2342
2.3597
2.24447
2.70455
1.93771
2.75448
0.490224
1.78413
2.32372
1.53251
1.35403
1.42269
0.530652
1.36955
1.3586
1.22863
0.76466
1.82077
2.08347
2.71969
2.42539
2.27542
2.24461
2.32655
2.26702
2.3168
2.35412
2.39256
2.37426
2.32943
2.38337
2.359
2.36246
2.39198
2.34197
2.32334
2.38156
2.32447
2.3165
2.28802
2.32422
2.31064
1.79678
2.25914
2.16301
2.14347
1.59368
1.79345
2.20823
1.82361
1.91379
1.63736
2.1723
2.31033
0.41222
2.21065
1.95935
1.01828
2.33726
2.31752
2.10981
2.12269
2.30407
2.18971
1.55739
2.27784
2.11631
2.03741
1.39763
2.13331
1.97962
1.86737
1.68706
2.20144
1.93026
1.99647
1.33384
2.28267
2.14948
1.50584
1.97606
2.65469
0.77738
0.678188
1.05458
1.68591
1.82699
2.12467
1.7191
1.6384
1.3149
1.12902
1.08329
2.44137
0.576877
1.7128
1.37016
1.37161
0.99563
1.53444
1.68447
1.58436
1.2966
1.16042
0.815735
1.25253
0.349347
2.5369
1.81731
2.07027
1.64375
1.65871
1.91291
1.69473
1.97762
2.39467
1.94243
1.91553
1.53767
1.29228
1.96785
2.25342
1.09764
1.98542
0.942039
1.99703
0.437281
0.535251
0.69051
0.390872
0.341794
1.82275
1.7998
2.11993
2.24062
2.3713
2.22981
2.32453
2.28611
2.21376
2.25546
2.31606
2.22661
2.32092
2.2123
2.32169
2.28779
2.35204
2.0397
2.30235
2.22625
1.65715
2.15851
1.56301
2.24795
1.55181
1.76169
2.29153
0.401171
0.38092
0.486111
0.428924
0.452593
0.262999
1.22326
2.32653
1.7806
1.62466
2.00823
1.98524
1.26724
1.33045
2.27571
2.3036
2.38384
2.38095
2.40601
2.38318
2.19338
2.38833
2.32657
2.33336
2.35635
2.38316
2.34858
2.38657
2.39013
2.34589
2.39752
2.39164
2.16883
2.33591
2.26772
2.37832
1.50158
1.62689
1.46096
2.15568
2.26805
2.32326
2.33651
2.33707
1.62099
1.24694
2.00056
2.19758
2.31231
2.30034
1.56992
2.37098
2.39435
2.39227
2.02415
1.06001
2.38052
2.37776
1.62278
1.79598
2.39474
2.39384
2.39689
2.82238
2.39435
2.39049
2.37711
2.54179
2.36787
2.39843
2.37923
2.39437
2.37294
2.23893
2.31251
0.943903
2.72559
2.38881
2.37008
2.3643
2.27146
1.99951
2.35164
2.3016
2.73729
2.28117
1.29837
2.35137
2.22983
1.8594
2.34588
2.30277
2.37591
2.38943
2.38447
0.54019
2.36343
2.33313
1.06729
1.2123
1.30688
2.381
2.35785
2.34522
1.05948
1.11539
0.523082
2.31642
2.36598
2.37624
2.334
2.35301
2.21052
2.29464
2.35198
2.26572
2.38033
2.37505
2.39822
2.38712
1.3053
1.53975
1.31857
1.95427
1.86197
2.37645
2.3597
2.27589
1.77622
2.31328
2.32182
1.90519
2.33868
2.33881
2.21211
2.11004
1.94177
1.73655
2.22966
2.17511
1.57956
1.56543
1.63815
1.82256
2.47494
2.3355
2.2494
2.05809
1.88913
2.14785
2.06068
1.68995
2.32783
2.34791
2.33915
2.33646
2.09353
2.33869
2.1483
1.90517
1.73177
2.07022
1.52407
2.52984
1.26171
1.5254
2.18231
2.00231
2.57089
1.83874
2.33583
2.13432
0.759053
2.02998
2.08638
2.27819
1.83941
2.33785
1.42113
2.03773
1.93432
2.5404
2.05968
1.56909
1.93754
1.99956
1.53067
2.05586
2.20198
2.2346
1.9885
2.13677
1.70814
0.481394
)
;
    }
}


// ************************************************************************* //
